+ 0.5 0 1 cbr 500 ------- 0 0.0 1.0 0 0
- 0.5 0 1 cbr 500 ------- 0 0.0 1.0 0 0
+ 0.508929 0 1 cbr 500 ------- 0 0.0 1.0 1 1
- 0.508929 0 1 cbr 500 ------- 0 0.0 1.0 1 1
r 0.514 0 1 cbr 500 ------- 0 0.0 1.0 0 0
+ 0.517857 0 1 cbr 500 ------- 0 0.0 1.0 2 2
- 0.517857 0 1 cbr 500 ------- 0 0.0 1.0 2 2
r 0.522929 0 1 cbr 500 ------- 0 0.0 1.0 1 1
+ 0.526786 0 1 cbr 500 ------- 0 0.0 1.0 3 3
- 0.526786 0 1 cbr 500 ------- 0 0.0 1.0 3 3
r 0.531857 0 1 cbr 500 ------- 0 0.0 1.0 2 2
+ 0.535714 0 1 cbr 500 ------- 0 0.0 1.0 4 4
- 0.535714 0 1 cbr 500 ------- 0 0.0 1.0 4 4
r 0.540786 0 1 cbr 500 ------- 0 0.0 1.0 3 3
+ 0.544643 0 1 cbr 500 ------- 0 0.0 1.0 5 5
- 0.544643 0 1 cbr 500 ------- 0 0.0 1.0 5 5
r 0.549714 0 1 cbr 500 ------- 0 0.0 1.0 4 4
+ 0.553571 0 1 cbr 500 ------- 0 0.0 1.0 6 6
- 0.553571 0 1 cbr 500 ------- 0 0.0 1.0 6 6
r 0.558643 0 1 cbr 500 ------- 0 0.0 1.0 5 5
+ 0.5625 0 1 cbr 500 ------- 0 0.0 1.0 7 7
- 0.5625 0 1 cbr 500 ------- 0 0.0 1.0 7 7
r 0.567571 0 1 cbr 500 ------- 0 0.0 1.0 6 6
+ 0.571429 0 1 cbr 500 ------- 0 0.0 1.0 8 8
- 0.571429 0 1 cbr 500 ------- 0 0.0 1.0 8 8
r 0.5765 0 1 cbr 500 ------- 0 0.0 1.0 7 7
+ 0.580357 0 1 cbr 500 ------- 0 0.0 1.0 9 9
- 0.580357 0 1 cbr 500 ------- 0 0.0 1.0 9 9
r 0.585429 0 1 cbr 500 ------- 0 0.0 1.0 8 8
+ 0.589286 0 1 cbr 500 ------- 0 0.0 1.0 10 10
- 0.589286 0 1 cbr 500 ------- 0 0.0 1.0 10 10
r 0.594357 0 1 cbr 500 ------- 0 0.0 1.0 9 9
+ 0.598214 0 1 cbr 500 ------- 0 0.0 1.0 11 11
- 0.598214 0 1 cbr 500 ------- 0 0.0 1.0 11 11
r 0.603286 0 1 cbr 500 ------- 0 0.0 1.0 10 10
+ 0.607143 0 1 cbr 500 ------- 0 0.0 1.0 12 12
- 0.607143 0 1 cbr 500 ------- 0 0.0 1.0 12 12
r 0.612214 0 1 cbr 500 ------- 0 0.0 1.0 11 11
+ 0.616071 0 1 cbr 500 ------- 0 0.0 1.0 13 13
- 0.616071 0 1 cbr 500 ------- 0 0.0 1.0 13 13
r 0.621143 0 1 cbr 500 ------- 0 0.0 1.0 12 12
+ 0.625 0 1 cbr 500 ------- 0 0.0 1.0 14 14
- 0.625 0 1 cbr 500 ------- 0 0.0 1.0 14 14
r 0.630071 0 1 cbr 500 ------- 0 0.0 1.0 13 13
+ 0.633929 0 1 cbr 500 ------- 0 0.0 1.0 15 15
- 0.633929 0 1 cbr 500 ------- 0 0.0 1.0 15 15
r 0.639 0 1 cbr 500 ------- 0 0.0 1.0 14 14
+ 0.642857 0 1 cbr 500 ------- 0 0.0 1.0 16 16
- 0.642857 0 1 cbr 500 ------- 0 0.0 1.0 16 16
r 0.647929 0 1 cbr 500 ------- 0 0.0 1.0 15 15
+ 0.651786 0 1 cbr 500 ------- 0 0.0 1.0 17 17
- 0.651786 0 1 cbr 500 ------- 0 0.0 1.0 17 17
r 0.656857 0 1 cbr 500 ------- 0 0.0 1.0 16 16
+ 0.660714 0 1 cbr 500 ------- 0 0.0 1.0 18 18
- 0.660714 0 1 cbr 500 ------- 0 0.0 1.0 18 18
r 0.665786 0 1 cbr 500 ------- 0 0.0 1.0 17 17
+ 0.669643 0 1 cbr 500 ------- 0 0.0 1.0 19 19
- 0.669643 0 1 cbr 500 ------- 0 0.0 1.0 19 19
r 0.674714 0 1 cbr 500 ------- 0 0.0 1.0 18 18
+ 0.678571 0 1 cbr 500 ------- 0 0.0 1.0 20 20
- 0.678571 0 1 cbr 500 ------- 0 0.0 1.0 20 20
r 0.683643 0 1 cbr 500 ------- 0 0.0 1.0 19 19
+ 0.6875 0 1 cbr 500 ------- 0 0.0 1.0 21 21
- 0.6875 0 1 cbr 500 ------- 0 0.0 1.0 21 21
r 0.692571 0 1 cbr 500 ------- 0 0.0 1.0 20 20
+ 0.696429 0 1 cbr 500 ------- 0 0.0 1.0 22 22
- 0.696429 0 1 cbr 500 ------- 0 0.0 1.0 22 22
r 0.7015 0 1 cbr 500 ------- 0 0.0 1.0 21 21
+ 0.705357 0 1 cbr 500 ------- 0 0.0 1.0 23 23
- 0.705357 0 1 cbr 500 ------- 0 0.0 1.0 23 23
r 0.710429 0 1 cbr 500 ------- 0 0.0 1.0 22 22
+ 0.714286 0 1 cbr 500 ------- 0 0.0 1.0 24 24
- 0.714286 0 1 cbr 500 ------- 0 0.0 1.0 24 24
r 0.719357 0 1 cbr 500 ------- 0 0.0 1.0 23 23
+ 0.723214 0 1 cbr 500 ------- 0 0.0 1.0 25 25
- 0.723214 0 1 cbr 500 ------- 0 0.0 1.0 25 25
r 0.728286 0 1 cbr 500 ------- 0 0.0 1.0 24 24
+ 0.732143 0 1 cbr 500 ------- 0 0.0 1.0 26 26
- 0.732143 0 1 cbr 500 ------- 0 0.0 1.0 26 26
r 0.737214 0 1 cbr 500 ------- 0 0.0 1.0 25 25
+ 0.741071 0 1 cbr 500 ------- 0 0.0 1.0 27 27
- 0.741071 0 1 cbr 500 ------- 0 0.0 1.0 27 27
r 0.746143 0 1 cbr 500 ------- 0 0.0 1.0 26 26
+ 0.75 0 1 cbr 500 ------- 0 0.0 1.0 28 28
- 0.75 0 1 cbr 500 ------- 0 0.0 1.0 28 28
r 0.755071 0 1 cbr 500 ------- 0 0.0 1.0 27 27
+ 0.758929 0 1 cbr 500 ------- 0 0.0 1.0 29 29
- 0.758929 0 1 cbr 500 ------- 0 0.0 1.0 29 29
r 0.764 0 1 cbr 500 ------- 0 0.0 1.0 28 28
+ 0.767857 0 1 cbr 500 ------- 0 0.0 1.0 30 30
- 0.767857 0 1 cbr 500 ------- 0 0.0 1.0 30 30
r 0.772929 0 1 cbr 500 ------- 0 0.0 1.0 29 29
+ 0.776786 0 1 cbr 500 ------- 0 0.0 1.0 31 31
- 0.776786 0 1 cbr 500 ------- 0 0.0 1.0 31 31
r 0.781857 0 1 cbr 500 ------- 0 0.0 1.0 30 30
+ 0.785714 0 1 cbr 500 ------- 0 0.0 1.0 32 32
- 0.785714 0 1 cbr 500 ------- 0 0.0 1.0 32 32
r 0.790786 0 1 cbr 500 ------- 0 0.0 1.0 31 31
+ 0.794643 0 1 cbr 500 ------- 0 0.0 1.0 33 33
- 0.794643 0 1 cbr 500 ------- 0 0.0 1.0 33 33
r 0.799714 0 1 cbr 500 ------- 0 0.0 1.0 32 32
+ 0.803571 0 1 cbr 500 ------- 0 0.0 1.0 34 34
- 0.803571 0 1 cbr 500 ------- 0 0.0 1.0 34 34
r 0.808643 0 1 cbr 500 ------- 0 0.0 1.0 33 33
+ 0.8125 0 1 cbr 500 ------- 0 0.0 1.0 35 35
- 0.8125 0 1 cbr 500 ------- 0 0.0 1.0 35 35
r 0.817571 0 1 cbr 500 ------- 0 0.0 1.0 34 34
+ 0.821429 0 1 cbr 500 ------- 0 0.0 1.0 36 36
- 0.821429 0 1 cbr 500 ------- 0 0.0 1.0 36 36
r 0.8265 0 1 cbr 500 ------- 0 0.0 1.0 35 35
+ 0.830357 0 1 cbr 500 ------- 0 0.0 1.0 37 37
- 0.830357 0 1 cbr 500 ------- 0 0.0 1.0 37 37
r 0.835429 0 1 cbr 500 ------- 0 0.0 1.0 36 36
+ 0.839286 0 1 cbr 500 ------- 0 0.0 1.0 38 38
- 0.839286 0 1 cbr 500 ------- 0 0.0 1.0 38 38
r 0.844357 0 1 cbr 500 ------- 0 0.0 1.0 37 37
+ 0.848214 0 1 cbr 500 ------- 0 0.0 1.0 39 39
- 0.848214 0 1 cbr 500 ------- 0 0.0 1.0 39 39
r 0.853286 0 1 cbr 500 ------- 0 0.0 1.0 38 38
+ 0.857143 0 1 cbr 500 ------- 0 0.0 1.0 40 40
- 0.857143 0 1 cbr 500 ------- 0 0.0 1.0 40 40
r 0.862214 0 1 cbr 500 ------- 0 0.0 1.0 39 39
+ 0.866071 0 1 cbr 500 ------- 0 0.0 1.0 41 41
- 0.866071 0 1 cbr 500 ------- 0 0.0 1.0 41 41
r 0.871143 0 1 cbr 500 ------- 0 0.0 1.0 40 40
+ 0.875 0 1 cbr 500 ------- 0 0.0 1.0 42 42
- 0.875 0 1 cbr 500 ------- 0 0.0 1.0 42 42
r 0.880071 0 1 cbr 500 ------- 0 0.0 1.0 41 41
+ 0.883929 0 1 cbr 500 ------- 0 0.0 1.0 43 43
- 0.883929 0 1 cbr 500 ------- 0 0.0 1.0 43 43
r 0.889 0 1 cbr 500 ------- 0 0.0 1.0 42 42
+ 0.892857 0 1 cbr 500 ------- 0 0.0 1.0 44 44
- 0.892857 0 1 cbr 500 ------- 0 0.0 1.0 44 44
r 0.897929 0 1 cbr 500 ------- 0 0.0 1.0 43 43
+ 0.901786 0 1 cbr 500 ------- 0 0.0 1.0 45 45
- 0.901786 0 1 cbr 500 ------- 0 0.0 1.0 45 45
r 0.906857 0 1 cbr 500 ------- 0 0.0 1.0 44 44
+ 0.910714 0 1 cbr 500 ------- 0 0.0 1.0 46 46
- 0.910714 0 1 cbr 500 ------- 0 0.0 1.0 46 46
r 0.915786 0 1 cbr 500 ------- 0 0.0 1.0 45 45
+ 0.919643 0 1 cbr 500 ------- 0 0.0 1.0 47 47
- 0.919643 0 1 cbr 500 ------- 0 0.0 1.0 47 47
r 0.924714 0 1 cbr 500 ------- 0 0.0 1.0 46 46
+ 0.928571 0 1 cbr 500 ------- 0 0.0 1.0 48 48
- 0.928571 0 1 cbr 500 ------- 0 0.0 1.0 48 48
r 0.933643 0 1 cbr 500 ------- 0 0.0 1.0 47 47
+ 0.9375 0 1 cbr 500 ------- 0 0.0 1.0 49 49
- 0.9375 0 1 cbr 500 ------- 0 0.0 1.0 49 49
r 0.942571 0 1 cbr 500 ------- 0 0.0 1.0 48 48
+ 0.946429 0 1 cbr 500 ------- 0 0.0 1.0 50 50
- 0.946429 0 1 cbr 500 ------- 0 0.0 1.0 50 50
r 0.9515 0 1 cbr 500 ------- 0 0.0 1.0 49 49
+ 0.955357 0 1 cbr 500 ------- 0 0.0 1.0 51 51
- 0.955357 0 1 cbr 500 ------- 0 0.0 1.0 51 51
r 0.960429 0 1 cbr 500 ------- 0 0.0 1.0 50 50
+ 0.964286 0 1 cbr 500 ------- 0 0.0 1.0 52 52
- 0.964286 0 1 cbr 500 ------- 0 0.0 1.0 52 52
r 0.969357 0 1 cbr 500 ------- 0 0.0 1.0 51 51
+ 0.973214 0 1 cbr 500 ------- 0 0.0 1.0 53 53
- 0.973214 0 1 cbr 500 ------- 0 0.0 1.0 53 53
r 0.978286 0 1 cbr 500 ------- 0 0.0 1.0 52 52
+ 0.982143 0 1 cbr 500 ------- 0 0.0 1.0 54 54
- 0.982143 0 1 cbr 500 ------- 0 0.0 1.0 54 54
r 0.987214 0 1 cbr 500 ------- 0 0.0 1.0 53 53
+ 0.991071 0 1 cbr 500 ------- 0 0.0 1.0 55 55
- 0.991071 0 1 cbr 500 ------- 0 0.0 1.0 55 55
r 0.996143 0 1 cbr 500 ------- 0 0.0 1.0 54 54
+ 1 0 1 cbr 500 ------- 0 0.0 1.0 56 56
- 1 0 1 cbr 500 ------- 0 0.0 1.0 56 56
r 1.005071 0 1 cbr 500 ------- 0 0.0 1.0 55 55
+ 1.008929 0 1 cbr 500 ------- 0 0.0 1.0 57 57
- 1.008929 0 1 cbr 500 ------- 0 0.0 1.0 57 57
r 1.014 0 1 cbr 500 ------- 0 0.0 1.0 56 56
+ 1.017857 0 1 cbr 500 ------- 0 0.0 1.0 58 58
- 1.017857 0 1 cbr 500 ------- 0 0.0 1.0 58 58
r 1.022929 0 1 cbr 500 ------- 0 0.0 1.0 57 57
+ 1.026786 0 1 cbr 500 ------- 0 0.0 1.0 59 59
- 1.026786 0 1 cbr 500 ------- 0 0.0 1.0 59 59
r 1.031857 0 1 cbr 500 ------- 0 0.0 1.0 58 58
+ 1.035714 0 1 cbr 500 ------- 0 0.0 1.0 60 60
- 1.035714 0 1 cbr 500 ------- 0 0.0 1.0 60 60
r 1.040786 0 1 cbr 500 ------- 0 0.0 1.0 59 59
+ 1.044643 0 1 cbr 500 ------- 0 0.0 1.0 61 61
- 1.044643 0 1 cbr 500 ------- 0 0.0 1.0 61 61
r 1.049714 0 1 cbr 500 ------- 0 0.0 1.0 60 60
+ 1.053571 0 1 cbr 500 ------- 0 0.0 1.0 62 62
- 1.053571 0 1 cbr 500 ------- 0 0.0 1.0 62 62
r 1.058643 0 1 cbr 500 ------- 0 0.0 1.0 61 61
+ 1.0625 0 1 cbr 500 ------- 0 0.0 1.0 63 63
- 1.0625 0 1 cbr 500 ------- 0 0.0 1.0 63 63
r 1.067571 0 1 cbr 500 ------- 0 0.0 1.0 62 62
+ 1.071429 0 1 cbr 500 ------- 0 0.0 1.0 64 64
- 1.071429 0 1 cbr 500 ------- 0 0.0 1.0 64 64
r 1.0765 0 1 cbr 500 ------- 0 0.0 1.0 63 63
+ 1.080357 0 1 cbr 500 ------- 0 0.0 1.0 65 65
- 1.080357 0 1 cbr 500 ------- 0 0.0 1.0 65 65
r 1.085429 0 1 cbr 500 ------- 0 0.0 1.0 64 64
+ 1.089286 0 1 cbr 500 ------- 0 0.0 1.0 66 66
- 1.089286 0 1 cbr 500 ------- 0 0.0 1.0 66 66
r 1.094357 0 1 cbr 500 ------- 0 0.0 1.0 65 65
+ 1.098214 0 1 cbr 500 ------- 0 0.0 1.0 67 67
- 1.098214 0 1 cbr 500 ------- 0 0.0 1.0 67 67
r 1.103286 0 1 cbr 500 ------- 0 0.0 1.0 66 66
+ 1.107143 0 1 cbr 500 ------- 0 0.0 1.0 68 68
- 1.107143 0 1 cbr 500 ------- 0 0.0 1.0 68 68
r 1.112214 0 1 cbr 500 ------- 0 0.0 1.0 67 67
+ 1.116071 0 1 cbr 500 ------- 0 0.0 1.0 69 69
- 1.116071 0 1 cbr 500 ------- 0 0.0 1.0 69 69
r 1.121143 0 1 cbr 500 ------- 0 0.0 1.0 68 68
+ 1.125 0 1 cbr 500 ------- 0 0.0 1.0 70 70
- 1.125 0 1 cbr 500 ------- 0 0.0 1.0 70 70
r 1.130071 0 1 cbr 500 ------- 0 0.0 1.0 69 69
+ 1.133929 0 1 cbr 500 ------- 0 0.0 1.0 71 71
- 1.133929 0 1 cbr 500 ------- 0 0.0 1.0 71 71
r 1.139 0 1 cbr 500 ------- 0 0.0 1.0 70 70
+ 1.142857 0 1 cbr 500 ------- 0 0.0 1.0 72 72
- 1.142857 0 1 cbr 500 ------- 0 0.0 1.0 72 72
r 1.147929 0 1 cbr 500 ------- 0 0.0 1.0 71 71
+ 1.151786 0 1 cbr 500 ------- 0 0.0 1.0 73 73
- 1.151786 0 1 cbr 500 ------- 0 0.0 1.0 73 73
r 1.156857 0 1 cbr 500 ------- 0 0.0 1.0 72 72
+ 1.160714 0 1 cbr 500 ------- 0 0.0 1.0 74 74
- 1.160714 0 1 cbr 500 ------- 0 0.0 1.0 74 74
r 1.165786 0 1 cbr 500 ------- 0 0.0 1.0 73 73
+ 1.169643 0 1 cbr 500 ------- 0 0.0 1.0 75 75
- 1.169643 0 1 cbr 500 ------- 0 0.0 1.0 75 75
r 1.174714 0 1 cbr 500 ------- 0 0.0 1.0 74 74
+ 1.178571 0 1 cbr 500 ------- 0 0.0 1.0 76 76
- 1.178571 0 1 cbr 500 ------- 0 0.0 1.0 76 76
r 1.183643 0 1 cbr 500 ------- 0 0.0 1.0 75 75
+ 1.1875 0 1 cbr 500 ------- 0 0.0 1.0 77 77
- 1.1875 0 1 cbr 500 ------- 0 0.0 1.0 77 77
r 1.192571 0 1 cbr 500 ------- 0 0.0 1.0 76 76
+ 1.196429 0 1 cbr 500 ------- 0 0.0 1.0 78 78
- 1.196429 0 1 cbr 500 ------- 0 0.0 1.0 78 78
r 1.2015 0 1 cbr 500 ------- 0 0.0 1.0 77 77
+ 1.205357 0 1 cbr 500 ------- 0 0.0 1.0 79 79
- 1.205357 0 1 cbr 500 ------- 0 0.0 1.0 79 79
r 1.210429 0 1 cbr 500 ------- 0 0.0 1.0 78 78
+ 1.214286 0 1 cbr 500 ------- 0 0.0 1.0 80 80
- 1.214286 0 1 cbr 500 ------- 0 0.0 1.0 80 80
r 1.219357 0 1 cbr 500 ------- 0 0.0 1.0 79 79
+ 1.223214 0 1 cbr 500 ------- 0 0.0 1.0 81 81
- 1.223214 0 1 cbr 500 ------- 0 0.0 1.0 81 81
r 1.228286 0 1 cbr 500 ------- 0 0.0 1.0 80 80
+ 1.232143 0 1 cbr 500 ------- 0 0.0 1.0 82 82
- 1.232143 0 1 cbr 500 ------- 0 0.0 1.0 82 82
r 1.237214 0 1 cbr 500 ------- 0 0.0 1.0 81 81
+ 1.241071 0 1 cbr 500 ------- 0 0.0 1.0 83 83
- 1.241071 0 1 cbr 500 ------- 0 0.0 1.0 83 83
r 1.246143 0 1 cbr 500 ------- 0 0.0 1.0 82 82
+ 1.25 0 1 cbr 500 ------- 0 0.0 1.0 84 84
- 1.25 0 1 cbr 500 ------- 0 0.0 1.0 84 84
r 1.255071 0 1 cbr 500 ------- 0 0.0 1.0 83 83
+ 1.258929 0 1 cbr 500 ------- 0 0.0 1.0 85 85
- 1.258929 0 1 cbr 500 ------- 0 0.0 1.0 85 85
r 1.264 0 1 cbr 500 ------- 0 0.0 1.0 84 84
+ 1.267857 0 1 cbr 500 ------- 0 0.0 1.0 86 86
- 1.267857 0 1 cbr 500 ------- 0 0.0 1.0 86 86
r 1.272929 0 1 cbr 500 ------- 0 0.0 1.0 85 85
+ 1.276786 0 1 cbr 500 ------- 0 0.0 1.0 87 87
- 1.276786 0 1 cbr 500 ------- 0 0.0 1.0 87 87
r 1.281857 0 1 cbr 500 ------- 0 0.0 1.0 86 86
+ 1.285714 0 1 cbr 500 ------- 0 0.0 1.0 88 88
- 1.285714 0 1 cbr 500 ------- 0 0.0 1.0 88 88
r 1.290786 0 1 cbr 500 ------- 0 0.0 1.0 87 87
+ 1.294643 0 1 cbr 500 ------- 0 0.0 1.0 89 89
- 1.294643 0 1 cbr 500 ------- 0 0.0 1.0 89 89
r 1.299714 0 1 cbr 500 ------- 0 0.0 1.0 88 88
+ 1.303571 0 1 cbr 500 ------- 0 0.0 1.0 90 90
- 1.303571 0 1 cbr 500 ------- 0 0.0 1.0 90 90
r 1.308643 0 1 cbr 500 ------- 0 0.0 1.0 89 89
+ 1.3125 0 1 cbr 500 ------- 0 0.0 1.0 91 91
- 1.3125 0 1 cbr 500 ------- 0 0.0 1.0 91 91
r 1.317571 0 1 cbr 500 ------- 0 0.0 1.0 90 90
+ 1.321429 0 1 cbr 500 ------- 0 0.0 1.0 92 92
- 1.321429 0 1 cbr 500 ------- 0 0.0 1.0 92 92
r 1.3265 0 1 cbr 500 ------- 0 0.0 1.0 91 91
+ 1.330357 0 1 cbr 500 ------- 0 0.0 1.0 93 93
- 1.330357 0 1 cbr 500 ------- 0 0.0 1.0 93 93
r 1.335429 0 1 cbr 500 ------- 0 0.0 1.0 92 92
+ 1.339286 0 1 cbr 500 ------- 0 0.0 1.0 94 94
- 1.339286 0 1 cbr 500 ------- 0 0.0 1.0 94 94
r 1.344357 0 1 cbr 500 ------- 0 0.0 1.0 93 93
+ 1.348214 0 1 cbr 500 ------- 0 0.0 1.0 95 95
- 1.348214 0 1 cbr 500 ------- 0 0.0 1.0 95 95
r 1.353286 0 1 cbr 500 ------- 0 0.0 1.0 94 94
+ 1.357143 0 1 cbr 500 ------- 0 0.0 1.0 96 96
- 1.357143 0 1 cbr 500 ------- 0 0.0 1.0 96 96
r 1.362214 0 1 cbr 500 ------- 0 0.0 1.0 95 95
+ 1.366071 0 1 cbr 500 ------- 0 0.0 1.0 97 97
- 1.366071 0 1 cbr 500 ------- 0 0.0 1.0 97 97
r 1.371143 0 1 cbr 500 ------- 0 0.0 1.0 96 96
+ 1.375 0 1 cbr 500 ------- 0 0.0 1.0 98 98
- 1.375 0 1 cbr 500 ------- 0 0.0 1.0 98 98
r 1.380071 0 1 cbr 500 ------- 0 0.0 1.0 97 97
+ 1.383929 0 1 cbr 500 ------- 0 0.0 1.0 99 99
- 1.383929 0 1 cbr 500 ------- 0 0.0 1.0 99 99
r 1.389 0 1 cbr 500 ------- 0 0.0 1.0 98 98
+ 1.392857 0 1 cbr 500 ------- 0 0.0 1.0 100 100
- 1.392857 0 1 cbr 500 ------- 0 0.0 1.0 100 100
r 1.397929 0 1 cbr 500 ------- 0 0.0 1.0 99 99
+ 1.401786 0 1 cbr 500 ------- 0 0.0 1.0 101 101
- 1.401786 0 1 cbr 500 ------- 0 0.0 1.0 101 101
r 1.406857 0 1 cbr 500 ------- 0 0.0 1.0 100 100
+ 1.410714 0 1 cbr 500 ------- 0 0.0 1.0 102 102
- 1.410714 0 1 cbr 500 ------- 0 0.0 1.0 102 102
r 1.415786 0 1 cbr 500 ------- 0 0.0 1.0 101 101
+ 1.419643 0 1 cbr 500 ------- 0 0.0 1.0 103 103
- 1.419643 0 1 cbr 500 ------- 0 0.0 1.0 103 103
r 1.424714 0 1 cbr 500 ------- 0 0.0 1.0 102 102
+ 1.428571 0 1 cbr 500 ------- 0 0.0 1.0 104 104
- 1.428571 0 1 cbr 500 ------- 0 0.0 1.0 104 104
r 1.433643 0 1 cbr 500 ------- 0 0.0 1.0 103 103
+ 1.4375 0 1 cbr 500 ------- 0 0.0 1.0 105 105
- 1.4375 0 1 cbr 500 ------- 0 0.0 1.0 105 105
r 1.442571 0 1 cbr 500 ------- 0 0.0 1.0 104 104
+ 1.446429 0 1 cbr 500 ------- 0 0.0 1.0 106 106
- 1.446429 0 1 cbr 500 ------- 0 0.0 1.0 106 106
r 1.4515 0 1 cbr 500 ------- 0 0.0 1.0 105 105
+ 1.455357 0 1 cbr 500 ------- 0 0.0 1.0 107 107
- 1.455357 0 1 cbr 500 ------- 0 0.0 1.0 107 107
r 1.460429 0 1 cbr 500 ------- 0 0.0 1.0 106 106
+ 1.464286 0 1 cbr 500 ------- 0 0.0 1.0 108 108
- 1.464286 0 1 cbr 500 ------- 0 0.0 1.0 108 108
r 1.469357 0 1 cbr 500 ------- 0 0.0 1.0 107 107
+ 1.473214 0 1 cbr 500 ------- 0 0.0 1.0 109 109
- 1.473214 0 1 cbr 500 ------- 0 0.0 1.0 109 109
r 1.478286 0 1 cbr 500 ------- 0 0.0 1.0 108 108
+ 1.482143 0 1 cbr 500 ------- 0 0.0 1.0 110 110
- 1.482143 0 1 cbr 500 ------- 0 0.0 1.0 110 110
r 1.487214 0 1 cbr 500 ------- 0 0.0 1.0 109 109
+ 1.491071 0 1 cbr 500 ------- 0 0.0 1.0 111 111
- 1.491071 0 1 cbr 500 ------- 0 0.0 1.0 111 111
r 1.496143 0 1 cbr 500 ------- 0 0.0 1.0 110 110
+ 1.5 0 1 cbr 500 ------- 0 0.0 1.0 112 112
- 1.5 0 1 cbr 500 ------- 0 0.0 1.0 112 112
r 1.505071 0 1 cbr 500 ------- 0 0.0 1.0 111 111
+ 1.508929 0 1 cbr 500 ------- 0 0.0 1.0 113 113
- 1.508929 0 1 cbr 500 ------- 0 0.0 1.0 113 113
r 1.514 0 1 cbr 500 ------- 0 0.0 1.0 112 112
+ 1.517857 0 1 cbr 500 ------- 0 0.0 1.0 114 114
- 1.517857 0 1 cbr 500 ------- 0 0.0 1.0 114 114
r 1.522929 0 1 cbr 500 ------- 0 0.0 1.0 113 113
+ 1.526786 0 1 cbr 500 ------- 0 0.0 1.0 115 115
- 1.526786 0 1 cbr 500 ------- 0 0.0 1.0 115 115
r 1.531857 0 1 cbr 500 ------- 0 0.0 1.0 114 114
+ 1.535714 0 1 cbr 500 ------- 0 0.0 1.0 116 116
- 1.535714 0 1 cbr 500 ------- 0 0.0 1.0 116 116
r 1.540786 0 1 cbr 500 ------- 0 0.0 1.0 115 115
+ 1.544643 0 1 cbr 500 ------- 0 0.0 1.0 117 117
- 1.544643 0 1 cbr 500 ------- 0 0.0 1.0 117 117
r 1.549714 0 1 cbr 500 ------- 0 0.0 1.0 116 116
+ 1.553571 0 1 cbr 500 ------- 0 0.0 1.0 118 118
- 1.553571 0 1 cbr 500 ------- 0 0.0 1.0 118 118
r 1.558643 0 1 cbr 500 ------- 0 0.0 1.0 117 117
+ 1.5625 0 1 cbr 500 ------- 0 0.0 1.0 119 119
- 1.5625 0 1 cbr 500 ------- 0 0.0 1.0 119 119
r 1.567571 0 1 cbr 500 ------- 0 0.0 1.0 118 118
+ 1.571429 0 1 cbr 500 ------- 0 0.0 1.0 120 120
- 1.571429 0 1 cbr 500 ------- 0 0.0 1.0 120 120
r 1.5765 0 1 cbr 500 ------- 0 0.0 1.0 119 119
+ 1.580357 0 1 cbr 500 ------- 0 0.0 1.0 121 121
- 1.580357 0 1 cbr 500 ------- 0 0.0 1.0 121 121
r 1.585429 0 1 cbr 500 ------- 0 0.0 1.0 120 120
+ 1.589286 0 1 cbr 500 ------- 0 0.0 1.0 122 122
- 1.589286 0 1 cbr 500 ------- 0 0.0 1.0 122 122
r 1.594357 0 1 cbr 500 ------- 0 0.0 1.0 121 121
+ 1.598214 0 1 cbr 500 ------- 0 0.0 1.0 123 123
- 1.598214 0 1 cbr 500 ------- 0 0.0 1.0 123 123
r 1.603286 0 1 cbr 500 ------- 0 0.0 1.0 122 122
+ 1.607143 0 1 cbr 500 ------- 0 0.0 1.0 124 124
- 1.607143 0 1 cbr 500 ------- 0 0.0 1.0 124 124
r 1.612214 0 1 cbr 500 ------- 0 0.0 1.0 123 123
+ 1.616071 0 1 cbr 500 ------- 0 0.0 1.0 125 125
- 1.616071 0 1 cbr 500 ------- 0 0.0 1.0 125 125
r 1.621143 0 1 cbr 500 ------- 0 0.0 1.0 124 124
+ 1.625 0 1 cbr 500 ------- 0 0.0 1.0 126 126
- 1.625 0 1 cbr 500 ------- 0 0.0 1.0 126 126
r 1.630071 0 1 cbr 500 ------- 0 0.0 1.0 125 125
+ 1.633929 0 1 cbr 500 ------- 0 0.0 1.0 127 127
- 1.633929 0 1 cbr 500 ------- 0 0.0 1.0 127 127
r 1.639 0 1 cbr 500 ------- 0 0.0 1.0 126 126
+ 1.642857 0 1 cbr 500 ------- 0 0.0 1.0 128 128
- 1.642857 0 1 cbr 500 ------- 0 0.0 1.0 128 128
r 1.647929 0 1 cbr 500 ------- 0 0.0 1.0 127 127
+ 1.651786 0 1 cbr 500 ------- 0 0.0 1.0 129 129
- 1.651786 0 1 cbr 500 ------- 0 0.0 1.0 129 129
r 1.656857 0 1 cbr 500 ------- 0 0.0 1.0 128 128
+ 1.660714 0 1 cbr 500 ------- 0 0.0 1.0 130 130
- 1.660714 0 1 cbr 500 ------- 0 0.0 1.0 130 130
r 1.665786 0 1 cbr 500 ------- 0 0.0 1.0 129 129
+ 1.669643 0 1 cbr 500 ------- 0 0.0 1.0 131 131
- 1.669643 0 1 cbr 500 ------- 0 0.0 1.0 131 131
r 1.674714 0 1 cbr 500 ------- 0 0.0 1.0 130 130
+ 1.678571 0 1 cbr 500 ------- 0 0.0 1.0 132 132
- 1.678571 0 1 cbr 500 ------- 0 0.0 1.0 132 132
r 1.683643 0 1 cbr 500 ------- 0 0.0 1.0 131 131
+ 1.6875 0 1 cbr 500 ------- 0 0.0 1.0 133 133
- 1.6875 0 1 cbr 500 ------- 0 0.0 1.0 133 133
r 1.692571 0 1 cbr 500 ------- 0 0.0 1.0 132 132
+ 1.696429 0 1 cbr 500 ------- 0 0.0 1.0 134 134
- 1.696429 0 1 cbr 500 ------- 0 0.0 1.0 134 134
r 1.7015 0 1 cbr 500 ------- 0 0.0 1.0 133 133
+ 1.705357 0 1 cbr 500 ------- 0 0.0 1.0 135 135
- 1.705357 0 1 cbr 500 ------- 0 0.0 1.0 135 135
r 1.710429 0 1 cbr 500 ------- 0 0.0 1.0 134 134
+ 1.714286 0 1 cbr 500 ------- 0 0.0 1.0 136 136
- 1.714286 0 1 cbr 500 ------- 0 0.0 1.0 136 136
r 1.719357 0 1 cbr 500 ------- 0 0.0 1.0 135 135
+ 1.723214 0 1 cbr 500 ------- 0 0.0 1.0 137 137
- 1.723214 0 1 cbr 500 ------- 0 0.0 1.0 137 137
r 1.728286 0 1 cbr 500 ------- 0 0.0 1.0 136 136
+ 1.732143 0 1 cbr 500 ------- 0 0.0 1.0 138 138
- 1.732143 0 1 cbr 500 ------- 0 0.0 1.0 138 138
r 1.737214 0 1 cbr 500 ------- 0 0.0 1.0 137 137
+ 1.741071 0 1 cbr 500 ------- 0 0.0 1.0 139 139
- 1.741071 0 1 cbr 500 ------- 0 0.0 1.0 139 139
r 1.746143 0 1 cbr 500 ------- 0 0.0 1.0 138 138
+ 1.75 0 1 cbr 500 ------- 0 0.0 1.0 140 140
- 1.75 0 1 cbr 500 ------- 0 0.0 1.0 140 140
r 1.755071 0 1 cbr 500 ------- 0 0.0 1.0 139 139
+ 1.758929 0 1 cbr 500 ------- 0 0.0 1.0 141 141
- 1.758929 0 1 cbr 500 ------- 0 0.0 1.0 141 141
r 1.764 0 1 cbr 500 ------- 0 0.0 1.0 140 140
+ 1.767857 0 1 cbr 500 ------- 0 0.0 1.0 142 142
- 1.767857 0 1 cbr 500 ------- 0 0.0 1.0 142 142
r 1.772929 0 1 cbr 500 ------- 0 0.0 1.0 141 141
+ 1.776786 0 1 cbr 500 ------- 0 0.0 1.0 143 143
- 1.776786 0 1 cbr 500 ------- 0 0.0 1.0 143 143
r 1.781857 0 1 cbr 500 ------- 0 0.0 1.0 142 142
+ 1.785714 0 1 cbr 500 ------- 0 0.0 1.0 144 144
- 1.785714 0 1 cbr 500 ------- 0 0.0 1.0 144 144
r 1.790786 0 1 cbr 500 ------- 0 0.0 1.0 143 143
+ 1.794643 0 1 cbr 500 ------- 0 0.0 1.0 145 145
- 1.794643 0 1 cbr 500 ------- 0 0.0 1.0 145 145
r 1.799714 0 1 cbr 500 ------- 0 0.0 1.0 144 144
+ 1.803571 0 1 cbr 500 ------- 0 0.0 1.0 146 146
- 1.803571 0 1 cbr 500 ------- 0 0.0 1.0 146 146
r 1.808643 0 1 cbr 500 ------- 0 0.0 1.0 145 145
+ 1.8125 0 1 cbr 500 ------- 0 0.0 1.0 147 147
- 1.8125 0 1 cbr 500 ------- 0 0.0 1.0 147 147
r 1.817571 0 1 cbr 500 ------- 0 0.0 1.0 146 146
+ 1.821429 0 1 cbr 500 ------- 0 0.0 1.0 148 148
- 1.821429 0 1 cbr 500 ------- 0 0.0 1.0 148 148
r 1.8265 0 1 cbr 500 ------- 0 0.0 1.0 147 147
+ 1.830357 0 1 cbr 500 ------- 0 0.0 1.0 149 149
- 1.830357 0 1 cbr 500 ------- 0 0.0 1.0 149 149
r 1.835429 0 1 cbr 500 ------- 0 0.0 1.0 148 148
+ 1.839286 0 1 cbr 500 ------- 0 0.0 1.0 150 150
- 1.839286 0 1 cbr 500 ------- 0 0.0 1.0 150 150
r 1.844357 0 1 cbr 500 ------- 0 0.0 1.0 149 149
+ 1.848214 0 1 cbr 500 ------- 0 0.0 1.0 151 151
- 1.848214 0 1 cbr 500 ------- 0 0.0 1.0 151 151
r 1.853286 0 1 cbr 500 ------- 0 0.0 1.0 150 150
+ 1.857143 0 1 cbr 500 ------- 0 0.0 1.0 152 152
- 1.857143 0 1 cbr 500 ------- 0 0.0 1.0 152 152
r 1.862214 0 1 cbr 500 ------- 0 0.0 1.0 151 151
+ 1.866071 0 1 cbr 500 ------- 0 0.0 1.0 153 153
- 1.866071 0 1 cbr 500 ------- 0 0.0 1.0 153 153
r 1.871143 0 1 cbr 500 ------- 0 0.0 1.0 152 152
+ 1.875 0 1 cbr 500 ------- 0 0.0 1.0 154 154
- 1.875 0 1 cbr 500 ------- 0 0.0 1.0 154 154
r 1.880071 0 1 cbr 500 ------- 0 0.0 1.0 153 153
+ 1.883929 0 1 cbr 500 ------- 0 0.0 1.0 155 155
- 1.883929 0 1 cbr 500 ------- 0 0.0 1.0 155 155
r 1.889 0 1 cbr 500 ------- 0 0.0 1.0 154 154
+ 1.892857 0 1 cbr 500 ------- 0 0.0 1.0 156 156
- 1.892857 0 1 cbr 500 ------- 0 0.0 1.0 156 156
r 1.897929 0 1 cbr 500 ------- 0 0.0 1.0 155 155
+ 1.901786 0 1 cbr 500 ------- 0 0.0 1.0 157 157
- 1.901786 0 1 cbr 500 ------- 0 0.0 1.0 157 157
r 1.906857 0 1 cbr 500 ------- 0 0.0 1.0 156 156
+ 1.910714 0 1 cbr 500 ------- 0 0.0 1.0 158 158
- 1.910714 0 1 cbr 500 ------- 0 0.0 1.0 158 158
r 1.915786 0 1 cbr 500 ------- 0 0.0 1.0 157 157
+ 1.919643 0 1 cbr 500 ------- 0 0.0 1.0 159 159
- 1.919643 0 1 cbr 500 ------- 0 0.0 1.0 159 159
r 1.924714 0 1 cbr 500 ------- 0 0.0 1.0 158 158
+ 1.928571 0 1 cbr 500 ------- 0 0.0 1.0 160 160
- 1.928571 0 1 cbr 500 ------- 0 0.0 1.0 160 160
r 1.933643 0 1 cbr 500 ------- 0 0.0 1.0 159 159
+ 1.9375 0 1 cbr 500 ------- 0 0.0 1.0 161 161
- 1.9375 0 1 cbr 500 ------- 0 0.0 1.0 161 161
r 1.942571 0 1 cbr 500 ------- 0 0.0 1.0 160 160
+ 1.946429 0 1 cbr 500 ------- 0 0.0 1.0 162 162
- 1.946429 0 1 cbr 500 ------- 0 0.0 1.0 162 162
r 1.9515 0 1 cbr 500 ------- 0 0.0 1.0 161 161
+ 1.955357 0 1 cbr 500 ------- 0 0.0 1.0 163 163
- 1.955357 0 1 cbr 500 ------- 0 0.0 1.0 163 163
r 1.960429 0 1 cbr 500 ------- 0 0.0 1.0 162 162
+ 1.964286 0 1 cbr 500 ------- 0 0.0 1.0 164 164
- 1.964286 0 1 cbr 500 ------- 0 0.0 1.0 164 164
r 1.969357 0 1 cbr 500 ------- 0 0.0 1.0 163 163
+ 1.973214 0 1 cbr 500 ------- 0 0.0 1.0 165 165
- 1.973214 0 1 cbr 500 ------- 0 0.0 1.0 165 165
r 1.978286 0 1 cbr 500 ------- 0 0.0 1.0 164 164
+ 1.982143 0 1 cbr 500 ------- 0 0.0 1.0 166 166
- 1.982143 0 1 cbr 500 ------- 0 0.0 1.0 166 166
r 1.987214 0 1 cbr 500 ------- 0 0.0 1.0 165 165
+ 1.991071 0 1 cbr 500 ------- 0 0.0 1.0 167 167
- 1.991071 0 1 cbr 500 ------- 0 0.0 1.0 167 167
r 1.996143 0 1 cbr 500 ------- 0 0.0 1.0 166 166
+ 2 0 1 cbr 500 ------- 0 0.0 1.0 168 168
- 2 0 1 cbr 500 ------- 0 0.0 1.0 168 168
r 2.005071 0 1 cbr 500 ------- 0 0.0 1.0 167 167
+ 2.008929 0 1 cbr 500 ------- 0 0.0 1.0 169 169
- 2.008929 0 1 cbr 500 ------- 0 0.0 1.0 169 169
r 2.014 0 1 cbr 500 ------- 0 0.0 1.0 168 168
+ 2.017857 0 1 cbr 500 ------- 0 0.0 1.0 170 170
- 2.017857 0 1 cbr 500 ------- 0 0.0 1.0 170 170
r 2.022929 0 1 cbr 500 ------- 0 0.0 1.0 169 169
+ 2.026786 0 1 cbr 500 ------- 0 0.0 1.0 171 171
- 2.026786 0 1 cbr 500 ------- 0 0.0 1.0 171 171
r 2.031857 0 1 cbr 500 ------- 0 0.0 1.0 170 170
+ 2.035714 0 1 cbr 500 ------- 0 0.0 1.0 172 172
- 2.035714 0 1 cbr 500 ------- 0 0.0 1.0 172 172
r 2.040786 0 1 cbr 500 ------- 0 0.0 1.0 171 171
+ 2.044643 0 1 cbr 500 ------- 0 0.0 1.0 173 173
- 2.044643 0 1 cbr 500 ------- 0 0.0 1.0 173 173
r 2.049714 0 1 cbr 500 ------- 0 0.0 1.0 172 172
+ 2.053571 0 1 cbr 500 ------- 0 0.0 1.0 174 174
- 2.053571 0 1 cbr 500 ------- 0 0.0 1.0 174 174
r 2.058643 0 1 cbr 500 ------- 0 0.0 1.0 173 173
+ 2.0625 0 1 cbr 500 ------- 0 0.0 1.0 175 175
- 2.0625 0 1 cbr 500 ------- 0 0.0 1.0 175 175
r 2.067571 0 1 cbr 500 ------- 0 0.0 1.0 174 174
+ 2.071429 0 1 cbr 500 ------- 0 0.0 1.0 176 176
- 2.071429 0 1 cbr 500 ------- 0 0.0 1.0 176 176
r 2.0765 0 1 cbr 500 ------- 0 0.0 1.0 175 175
+ 2.080357 0 1 cbr 500 ------- 0 0.0 1.0 177 177
- 2.080357 0 1 cbr 500 ------- 0 0.0 1.0 177 177
r 2.085429 0 1 cbr 500 ------- 0 0.0 1.0 176 176
+ 2.089286 0 1 cbr 500 ------- 0 0.0 1.0 178 178
- 2.089286 0 1 cbr 500 ------- 0 0.0 1.0 178 178
r 2.094357 0 1 cbr 500 ------- 0 0.0 1.0 177 177
+ 2.098214 0 1 cbr 500 ------- 0 0.0 1.0 179 179
- 2.098214 0 1 cbr 500 ------- 0 0.0 1.0 179 179
r 2.103286 0 1 cbr 500 ------- 0 0.0 1.0 178 178
+ 2.107143 0 1 cbr 500 ------- 0 0.0 1.0 180 180
- 2.107143 0 1 cbr 500 ------- 0 0.0 1.0 180 180
r 2.112214 0 1 cbr 500 ------- 0 0.0 1.0 179 179
+ 2.116071 0 1 cbr 500 ------- 0 0.0 1.0 181 181
- 2.116071 0 1 cbr 500 ------- 0 0.0 1.0 181 181
r 2.121143 0 1 cbr 500 ------- 0 0.0 1.0 180 180
+ 2.125 0 1 cbr 500 ------- 0 0.0 1.0 182 182
- 2.125 0 1 cbr 500 ------- 0 0.0 1.0 182 182
r 2.130071 0 1 cbr 500 ------- 0 0.0 1.0 181 181
+ 2.133929 0 1 cbr 500 ------- 0 0.0 1.0 183 183
- 2.133929 0 1 cbr 500 ------- 0 0.0 1.0 183 183
r 2.139 0 1 cbr 500 ------- 0 0.0 1.0 182 182
+ 2.142857 0 1 cbr 500 ------- 0 0.0 1.0 184 184
- 2.142857 0 1 cbr 500 ------- 0 0.0 1.0 184 184
r 2.147929 0 1 cbr 500 ------- 0 0.0 1.0 183 183
+ 2.151786 0 1 cbr 500 ------- 0 0.0 1.0 185 185
- 2.151786 0 1 cbr 500 ------- 0 0.0 1.0 185 185
r 2.156857 0 1 cbr 500 ------- 0 0.0 1.0 184 184
+ 2.160714 0 1 cbr 500 ------- 0 0.0 1.0 186 186
- 2.160714 0 1 cbr 500 ------- 0 0.0 1.0 186 186
r 2.165786 0 1 cbr 500 ------- 0 0.0 1.0 185 185
+ 2.169643 0 1 cbr 500 ------- 0 0.0 1.0 187 187
- 2.169643 0 1 cbr 500 ------- 0 0.0 1.0 187 187
r 2.174714 0 1 cbr 500 ------- 0 0.0 1.0 186 186
+ 2.178571 0 1 cbr 500 ------- 0 0.0 1.0 188 188
- 2.178571 0 1 cbr 500 ------- 0 0.0 1.0 188 188
r 2.183643 0 1 cbr 500 ------- 0 0.0 1.0 187 187
+ 2.1875 0 1 cbr 500 ------- 0 0.0 1.0 189 189
- 2.1875 0 1 cbr 500 ------- 0 0.0 1.0 189 189
r 2.192571 0 1 cbr 500 ------- 0 0.0 1.0 188 188
+ 2.196429 0 1 cbr 500 ------- 0 0.0 1.0 190 190
- 2.196429 0 1 cbr 500 ------- 0 0.0 1.0 190 190
r 2.2015 0 1 cbr 500 ------- 0 0.0 1.0 189 189
+ 2.205357 0 1 cbr 500 ------- 0 0.0 1.0 191 191
- 2.205357 0 1 cbr 500 ------- 0 0.0 1.0 191 191
r 2.210429 0 1 cbr 500 ------- 0 0.0 1.0 190 190
+ 2.214286 0 1 cbr 500 ------- 0 0.0 1.0 192 192
- 2.214286 0 1 cbr 500 ------- 0 0.0 1.0 192 192
r 2.219357 0 1 cbr 500 ------- 0 0.0 1.0 191 191
+ 2.223214 0 1 cbr 500 ------- 0 0.0 1.0 193 193
- 2.223214 0 1 cbr 500 ------- 0 0.0 1.0 193 193
r 2.228286 0 1 cbr 500 ------- 0 0.0 1.0 192 192
+ 2.232143 0 1 cbr 500 ------- 0 0.0 1.0 194 194
- 2.232143 0 1 cbr 500 ------- 0 0.0 1.0 194 194
r 2.237214 0 1 cbr 500 ------- 0 0.0 1.0 193 193
+ 2.241071 0 1 cbr 500 ------- 0 0.0 1.0 195 195
- 2.241071 0 1 cbr 500 ------- 0 0.0 1.0 195 195
r 2.246143 0 1 cbr 500 ------- 0 0.0 1.0 194 194
+ 2.25 0 1 cbr 500 ------- 0 0.0 1.0 196 196
- 2.25 0 1 cbr 500 ------- 0 0.0 1.0 196 196
r 2.255071 0 1 cbr 500 ------- 0 0.0 1.0 195 195
+ 2.258929 0 1 cbr 500 ------- 0 0.0 1.0 197 197
- 2.258929 0 1 cbr 500 ------- 0 0.0 1.0 197 197
r 2.264 0 1 cbr 500 ------- 0 0.0 1.0 196 196
+ 2.267857 0 1 cbr 500 ------- 0 0.0 1.0 198 198
- 2.267857 0 1 cbr 500 ------- 0 0.0 1.0 198 198
r 2.272929 0 1 cbr 500 ------- 0 0.0 1.0 197 197
+ 2.276786 0 1 cbr 500 ------- 0 0.0 1.0 199 199
- 2.276786 0 1 cbr 500 ------- 0 0.0 1.0 199 199
r 2.281857 0 1 cbr 500 ------- 0 0.0 1.0 198 198
+ 2.285714 0 1 cbr 500 ------- 0 0.0 1.0 200 200
- 2.285714 0 1 cbr 500 ------- 0 0.0 1.0 200 200
r 2.290786 0 1 cbr 500 ------- 0 0.0 1.0 199 199
+ 2.294643 0 1 cbr 500 ------- 0 0.0 1.0 201 201
- 2.294643 0 1 cbr 500 ------- 0 0.0 1.0 201 201
r 2.299714 0 1 cbr 500 ------- 0 0.0 1.0 200 200
+ 2.303571 0 1 cbr 500 ------- 0 0.0 1.0 202 202
- 2.303571 0 1 cbr 500 ------- 0 0.0 1.0 202 202
r 2.308643 0 1 cbr 500 ------- 0 0.0 1.0 201 201
+ 2.3125 0 1 cbr 500 ------- 0 0.0 1.0 203 203
- 2.3125 0 1 cbr 500 ------- 0 0.0 1.0 203 203
r 2.317571 0 1 cbr 500 ------- 0 0.0 1.0 202 202
+ 2.321429 0 1 cbr 500 ------- 0 0.0 1.0 204 204
- 2.321429 0 1 cbr 500 ------- 0 0.0 1.0 204 204
r 2.3265 0 1 cbr 500 ------- 0 0.0 1.0 203 203
+ 2.330357 0 1 cbr 500 ------- 0 0.0 1.0 205 205
- 2.330357 0 1 cbr 500 ------- 0 0.0 1.0 205 205
r 2.335429 0 1 cbr 500 ------- 0 0.0 1.0 204 204
+ 2.339286 0 1 cbr 500 ------- 0 0.0 1.0 206 206
- 2.339286 0 1 cbr 500 ------- 0 0.0 1.0 206 206
r 2.344357 0 1 cbr 500 ------- 0 0.0 1.0 205 205
+ 2.348214 0 1 cbr 500 ------- 0 0.0 1.0 207 207
- 2.348214 0 1 cbr 500 ------- 0 0.0 1.0 207 207
r 2.353286 0 1 cbr 500 ------- 0 0.0 1.0 206 206
+ 2.357143 0 1 cbr 500 ------- 0 0.0 1.0 208 208
- 2.357143 0 1 cbr 500 ------- 0 0.0 1.0 208 208
r 2.362214 0 1 cbr 500 ------- 0 0.0 1.0 207 207
+ 2.366071 0 1 cbr 500 ------- 0 0.0 1.0 209 209
- 2.366071 0 1 cbr 500 ------- 0 0.0 1.0 209 209
r 2.371143 0 1 cbr 500 ------- 0 0.0 1.0 208 208
+ 2.375 0 1 cbr 500 ------- 0 0.0 1.0 210 210
- 2.375 0 1 cbr 500 ------- 0 0.0 1.0 210 210